<?xml version="1.0"?>
<VTKFile type="UnstructuredGrid" version="0.1" byte_order="LittleEndian" header_type="UInt32" compressor="vtkZLibDataCompressor">
  <UnstructuredGrid>
    <Piece NumberOfPoints="242" NumberOfCells="100">
      <PointData>
        <DataArray type="Float64" Name="NODE" NumberOfComponents="3" format="ascii" RangeMin="0" RangeMax="1.4142489172702237">
          0 0 0 0.1 0 0
          0.2 0 0 0.30000000000000004 0 0
          0.4 0 0 0.5 0 0
          0.6000000000000001 0 0 0.7000000000000001 0 0
          0.8 0 0 0.9 0 0
          1 0 0 0 0.1 0
          0.1 0.1 0 0.2 0.1 0
          0.30000000000000004 0.1 0 0.4 0.1 0
          0.5 0.1 0 0.6000000000000001 0.1 0
          0.7000000000000001 0.1 0 0.8 0.1 0
          0.9 0.1 0 1 0.1 0
          0 0.2 0 0.1 0.2 0
          0.2 0.2 0 0.30000000000000004 0.2 0
          0.4 0.2 0 0.5 0.2 0
          0.6000000000000001 0.2 0 0.7000000000000001 0.2 0
          0.8 0.2 0 0.9 0.2 0
          1 0.2 0 0 0.30000000000000004 0
          0.1 0.30000000000000004 0 0.2 0.30000000000000004 0
          0.30000000000000004 0.30000000000000004 0 0.4 0.30000000000000004 0
          0.5 0.30000000000000004 0 0.6000000000000001 0.30000000000000004 0
          0.7000000000000001 0.30000000000000004 0 0.8 0.30000000000000004 0
          0.9 0.30000000000000004 0 1 0.30000000000000004 0
          0 0.4 0 0.1 0.4 0
          0.2 0.4 0 0.30000000000000004 0.4 0
          0.4 0.4 0 0.5 0.4 0
          0.6000000000000001 0.4 0 0.7000000000000001 0.4 0
          0.8 0.4 0 0.9 0.4 0
          1 0.4 0 0 0.5 0
          0.1 0.5 0 0.2 0.5 0
          0.30000000000000004 0.5 0 0.4 0.5 0
          0.5 0.5 0 0.6000000000000001 0.5 0
          0.7000000000000001 0.5 0 0.8 0.5 0
          0.9 0.5 0 1 0.5 0
          0 0.6000000000000001 0 0.1 0.6000000000000001 0
          0.2 0.6000000000000001 0 0.30000000000000004 0.6000000000000001 0
          0.4 0.6000000000000001 0 0.5 0.6000000000000001 0
          0.6000000000000001 0.6000000000000001 0 0.7000000000000001 0.6000000000000001 0
          0.8 0.6000000000000001 0 0.9 0.6000000000000001 0
          1 0.6000000000000001 0 0 0.7000000000000001 0
          0.1 0.7000000000000001 0 0.2 0.7000000000000001 0
          0.30000000000000004 0.7000000000000001 0 0.4 0.7000000000000001 0
          0.5 0.7000000000000001 0 0.6000000000000001 0.7000000000000001 0
          0.7000000000000001 0.7000000000000001 0 0.8 0.7000000000000001 0
          0.9 0.7000000000000001 0 1 0.7000000000000001 0
          0 0.8 0 0.1 0.8 0
          0.2 0.8 0 0.30000000000000004 0.8 0
          0.4 0.8 0 0.5 0.8 0
          0.6000000000000001 0.8 0 0.7000000000000001 0.8 0
          0.8 0.8 0 0.9 0.8 0
          1 0.8 0 0 0.9 0
          0.1 0.9 0 0.2 0.9 0
          0.30000000000000004 0.9 0 0.4 0.9 0
          0.5 0.9 0 0.6000000000000001 0.9 0
          0.7000000000000001 0.9 0 0.8 0.9 0
          0.9 0.9 0 1 0.9 0
          0 1 0 0.1 1 0
          0.2 1 0 0.30000000000000004 1 0
          0.4 1 0 0.5 1 0
          0.6000000000000001 1 0 0.7000000000000001 1 0
          0.8 1 0 0.9 1 0
          1 1 0 0 0 0.01
          0.1 0 0.01 0.2 0 0.01
          0.30000000000000004 0 0.01 0.4 0 0.01
          0.5 0 0.01 0.6000000000000001 0 0.01
          0.7000000000000001 0 0.01 0.8 0 0.01
          0.9 0 0.01 1 0 0.01
          0 0.1 0.01 0.1 0.1 0.01
          0.2 0.1 0.01 0.30000000000000004 0.1 0.01
          0.4 0.1 0.01 0.5 0.1 0.01
          0.6000000000000001 0.1 0.01 0.7000000000000001 0.1 0.01
          0.8 0.1 0.01 0.9 0.1 0.01
          1 0.1 0.01 0 0.2 0.01
          0.1 0.2 0.01 0.2 0.2 0.01
          0.30000000000000004 0.2 0.01 0.4 0.2 0.01
          0.5 0.2 0.01 0.6000000000000001 0.2 0.01
          0.7000000000000001 0.2 0.01 0.8 0.2 0.01
          0.9 0.2 0.01 1 0.2 0.01
          0 0.30000000000000004 0.01 0.1 0.30000000000000004 0.01
          0.2 0.30000000000000004 0.01 0.30000000000000004 0.30000000000000004 0.01
          0.4 0.30000000000000004 0.01 0.5 0.30000000000000004 0.01
          0.6000000000000001 0.30000000000000004 0.01 0.7000000000000001 0.30000000000000004 0.01
          0.8 0.30000000000000004 0.01 0.9 0.30000000000000004 0.01
          1 0.30000000000000004 0.01 0 0.4 0.01
          0.1 0.4 0.01 0.2 0.4 0.01
          0.30000000000000004 0.4 0.01 0.4 0.4 0.01
          0.5 0.4 0.01 0.6000000000000001 0.4 0.01
          0.7000000000000001 0.4 0.01 0.8 0.4 0.01
          0.9 0.4 0.01 1 0.4 0.01
          0 0.5 0.01 0.1 0.5 0.01
          0.2 0.5 0.01 0.30000000000000004 0.5 0.01
          0.4 0.5 0.01 0.5 0.5 0.01
          0.6000000000000001 0.5 0.01 0.7000000000000001 0.5 0.01
          0.8 0.5 0.01 0.9 0.5 0.01
          1 0.5 0.01 0 0.6000000000000001 0.01
          0.1 0.6000000000000001 0.01 0.2 0.6000000000000001 0.01
          0.30000000000000004 0.6000000000000001 0.01 0.4 0.6000000000000001 0.01
          0.5 0.6000000000000001 0.01 0.6000000000000001 0.6000000000000001 0.01
          0.7000000000000001 0.6000000000000001 0.01 0.8 0.6000000000000001 0.01
          0.9 0.6000000000000001 0.01 1 0.6000000000000001 0.01
          0 0.7000000000000001 0.01 0.1 0.7000000000000001 0.01
          0.2 0.7000000000000001 0.01 0.30000000000000004 0.7000000000000001 0.01
          0.4 0.7000000000000001 0.01 0.5 0.7000000000000001 0.01
          0.6000000000000001 0.7000000000000001 0.01 0.7000000000000001 0.7000000000000001 0.01
          0.8 0.7000000000000001 0.01 0.9 0.7000000000000001 0.01
          1 0.7000000000000001 0.01 0 0.8 0.01
          0.1 0.8 0.01 0.2 0.8 0.01
          0.30000000000000004 0.8 0.01 0.4 0.8 0.01
          0.5 0.8 0.01 0.6000000000000001 0.8 0.01
          0.7000000000000001 0.8 0.01 0.8 0.8 0.01
          0.9 0.8 0.01 1 0.8 0.01
          0 0.9 0.01 0.1 0.9 0.01
          0.2 0.9 0.01 0.30000000000000004 0.9 0.01
          0.4 0.9 0.01 0.5 0.9 0.01
          0.6000000000000001 0.9 0.01 0.7000000000000001 0.9 0.01
          0.8 0.9 0.01 0.9 0.9 0.01
          1 0.9 0.01 0 1 0.01
          0.1 1 0.01 0.2 1 0.01
          0.30000000000000004 1 0.01 0.4 1 0.01
          0.5 1 0.01 0.6000000000000001 1 0.01
          0.7000000000000001 1 0.01 0.8 1 0.01
          0.9 1 0.01 1 1 0.01
          <InformationKey name="L2_NORM_RANGE" location="vtkDataArray" length="2">
            <Value index="0">
              0
            </Value>
            <Value index="1">
              1.4142489173
            </Value>
          </InformationKey>
        </DataArray>
        <DataArray type="Float64" Name="boundary_T" format="ascii" RangeMin="0.5999999046325684" RangeMax="0.5999999046325684">
          0.5999999046325684 NaN NaN NaN NaN NaN
          NaN NaN NaN NaN NaN 0.5999999046325684
          NaN NaN NaN NaN NaN NaN
          NaN NaN NaN NaN 0.5999999046325684 NaN
          NaN NaN NaN NaN NaN NaN
          NaN NaN NaN 0.5999999046325684 NaN NaN
          NaN NaN NaN NaN NaN NaN
          NaN NaN 0.5999999046325684 NaN NaN NaN
          NaN NaN NaN NaN NaN NaN
          NaN 0.5999999046325684 NaN NaN NaN NaN
          NaN NaN NaN NaN NaN NaN
          0.5999999046325684 NaN NaN NaN NaN NaN
          NaN NaN NaN NaN NaN 0.5999999046325684
          NaN NaN NaN NaN NaN NaN
          NaN NaN NaN NaN 0.5999999046325684 NaN
          NaN NaN NaN NaN NaN NaN
          NaN NaN NaN 0.5999999046325684 NaN NaN
          NaN NaN NaN NaN NaN NaN
          NaN NaN 0.5999999046325684 NaN NaN NaN
          NaN NaN NaN NaN NaN NaN
          NaN 0.5999999046325684 NaN NaN NaN NaN
          NaN NaN NaN NaN NaN NaN
          0.5999999046325684 NaN NaN NaN NaN NaN
          NaN NaN NaN NaN NaN 0.5999999046325684
          NaN NaN NaN NaN NaN NaN
          NaN NaN NaN NaN 0.5999999046325684 NaN
          NaN NaN NaN NaN NaN NaN
          NaN NaN NaN 0.5999999046325684 NaN NaN
          NaN NaN NaN NaN NaN NaN
          NaN NaN 0.5999999046325684 NaN NaN NaN
          NaN NaN NaN NaN NaN NaN
          NaN 0.5999999046325684 NaN NaN NaN NaN
          NaN NaN NaN NaN NaN NaN
          0.5999999046325684 NaN NaN NaN NaN NaN
          NaN NaN NaN NaN NaN 0.5999999046325684
          NaN NaN NaN NaN NaN NaN
          NaN NaN NaN NaN 0.5999999046325684 NaN
          NaN NaN NaN NaN NaN NaN
          NaN NaN NaN 0.5999999046325684 NaN NaN
          NaN NaN NaN NaN NaN NaN
          NaN NaN
        </DataArray>
        <DataArray type="Float64" Name="filtered_surface_normals" NumberOfComponents="3" format="ascii" RangeMin="0" RangeMax="1">
          -0.7071067811865476 -0.7071067811865476 0 0 -1 0
          0 -1 0 0 -1 0
          0 -1 0 0 -1 0
          0 -1 0 0 -1 0
          0 -1 0 0 -1 0
          0.7071067811865476 -0.7071067811865476 0 -1 0 0
          0 0 0 0 0 0
          0 0 0 0 0 0
          0 0 0 0 0 0
          0 0 0 0 0 0
          0 0 0 1 0 0
          -1 0 0 0 0 0
          0 0 0 0 0 0
          0 0 0 0 0 0
          0 0 0 0 0 0
          0 0 0 0 0 0
          1 0 0 -1 0 0
          0 0 0 0 0 0
          0 0 0 0 0 0
          0 0 0 0 0 0
          0 0 0 0 0 0
          0 0 0 1 0 0
          -1 0 0 0 0 0
          0 0 0 0 0 0
          0 0 0 0 0 0
          0 0 0 0 0 0
          0 0 0 0 0 0
          1 0 0 -1 0 0
          0 0 0 0 0 0
          0 0 0 0 0 0
          0 0 0 0 0 0
          0 0 0 0 0 0
          0 0 0 1 0 0
          -1 0 0 0 0 0
          0 0 0 0 0 0
          0 0 0 0 0 0
          0 0 0 0 0 0
          0 0 0 0 0 0
          1 0 0 -1 0 0
          0 0 0 0 0 0
          0 0 0 0 0 0
          0 0 0 0 0 0
          0 0 0 0 0 0
          0 0 0 1 0 0
          -1 0 0 0 0 0
          0 0 0 0 0 0
          0 0 0 0 0 0
          0 0 0 0 0 0
          0 0 0 0 0 0
          1 0 0 -1 0 0
          0 0 0 0 0 0
          0 0 0 0 0 0
          0 0 0 0 0 0
          0 0 0 0 0 0
          0 0 0 1 0 0
          -0.7071067811865476 0.7071067811865476 0 0 1 0
          0 1 0 0 1 0
          0 1 0 0 1 0
          0 1 0 0 1 0
          0 1 0 0 1 0
          0.7071067811865476 0.7071067811865476 0 -0.7071067811865476 -0.7071067811865476 0
          0 -1 0 0 -1 0
          0 -1 0 0 -1 0
          0 -1 0 0 -1 0
          0 -1 0 0 -1 0
          0 -1 0 0.7071067811865476 -0.7071067811865476 0
          -1 0 0 0 0 0
          0 0 0 0 0 0
          0 0 0 0 0 0
          0 0 0 0 0 0
          0 0 0 0 0 0
          1 0 0 -1 0 0
          0 0 0 0 0 0
          0 0 0 0 0 0
          0 0 0 0 0 0
          0 0 0 0 0 0
          0 0 0 1 0 0
          -1 0 0 0 0 0
          0 0 0 0 0 0
          0 0 0 0 0 0
          0 0 0 0 0 0
          0 0 0 0 0 0
          1 0 0 -1 0 0
          0 0 0 0 0 0
          0 0 0 0 0 0
          0 0 0 0 0 0
          0 0 0 0 0 0
          0 0 0 1 0 0
          -1 0 0 0 0 0
          0 0 0 0 0 0
          0 0 0 0 0 0
          0 0 0 0 0 0
          0 0 0 0 0 0
          1 0 0 -1 0 0
          0 0 0 0 0 0
          0 0 0 0 0 0
          0 0 0 0 0 0
          0 0 0 0 0 0
          0 0 0 1 0 0
          -1 0 0 0 0 0
          0 0 0 0 0 0
          0 0 0 0 0 0
          0 0 0 0 0 0
          0 0 0 0 0 0
          1 0 0 -1 0 0
          0 0 0 0 0 0
          0 0 0 0 0 0
          0 0 0 0 0 0
          0 0 0 0 0 0
          0 0 0 1 0 0
          -1 0 0 0 0 0
          0 0 0 0 0 0
          0 0 0 0 0 0
          0 0 0 0 0 0
          0 0 0 0 0 0
          1 0 0 -0.7071067811865476 0.7071067811865476 0
          0 1 0 0 1 0
          0 1 0 0 1 0
          0 1 0 0 1 0
          0 1 0 0 1 0
          0 1 0 0.7071067811865476 0.7071067811865476 0
          <InformationKey name="L2_NORM_RANGE" location="vtkDataArray" length="2">
            <Value index="0">
              0
            </Value>
            <Value index="1">
              1
            </Value>
          </InformationKey>
        </DataArray>
        <DataArray type="Float64" Name="weighted_surface_normals" NumberOfComponents="3" format="ascii" RangeMin="0" RangeMax="10">
          -7.0710678118654755 -7.0710678118654755 0 0 -10 0
          0 -10 0 0 -10 0
          0 -10 0 0 -10 0
          0 -10 0 0 -10 0
          0 -10 0 0 -10 0
          7.0710678118654755 -7.0710678118654755 0 -10 0 0
          0 0 0 0 0 0
          0 0 0 0 0 0
          0 0 0 0 0 0
          0 0 0 0 0 0
          0 0 0 10 0 0
          -10 0 0 0 0 0
          0 0 0 0 0 0
          0 0 0 0 0 0
          0 0 0 0 0 0
          0 0 0 0 0 0
          10 0 0 -10 0 0
          0 0 0 0 0 0
          0 0 0 0 0 0
          0 0 0 0 0 0
          0 0 0 0 0 0
          0 0 0 10 0 0
          -10 0 0 0 0 0
          0 0 0 0 0 0
          0 0 0 0 0 0
          0 0 0 0 0 0
          0 0 0 0 0 0
          10 0 0 -10 0 0
          0 0 0 0 0 0
          0 0 0 0 0 0
          0 0 0 0 0 0
          0 0 0 0 0 0
          0 0 0 10 0 0
          -10 0 0 0 0 0
          0 0 0 0 0 0
          0 0 0 0 0 0
          0 0 0 0 0 0
          0 0 0 0 0 0
          10 0 0 -10 0 0
          0 0 0 0 0 0
          0 0 0 0 0 0
          0 0 0 0 0 0
          0 0 0 0 0 0
          0 0 0 10 0 0
          -10 0 0 0 0 0
          0 0 0 0 0 0
          0 0 0 0 0 0
          0 0 0 0 0 0
          0 0 0 0 0 0
          10 0 0 -10 0 0
          0 0 0 0 0 0
          0 0 0 0 0 0
          0 0 0 0 0 0
          0 0 0 0 0 0
          0 0 0 10 0 0
          -7.0710678118654755 7.0710678118654755 0 0 10 0
          0 10 0 0 10 0
          0 10 0 0 10 0
          0 10 0 0 10 0
          0 10 0 0 10 0
          7.0710678118654755 7.0710678118654755 0 -7.0710678118654755 -7.0710678118654755 0
          0 -10 0 0 -10 0
          0 -10 0 0 -10 0
          0 -10 0 0 -10 0
          0 -10 0 0 -10 0
          0 -10 0 7.0710678118654755 -7.0710678118654755 0
          -10 0 0 0 0 0
          0 0 0 0 0 0
          0 0 0 0 0 0
          0 0 0 0 0 0
          0 0 0 0 0 0
          10 0 0 -10 0 0
          0 0 0 0 0 0
          0 0 0 0 0 0
          0 0 0 0 0 0
          0 0 0 0 0 0
          0 0 0 10 0 0
          -10 0 0 0 0 0
          0 0 0 0 0 0
          0 0 0 0 0 0
          0 0 0 0 0 0
          0 0 0 0 0 0
          10 0 0 -10 0 0
          0 0 0 0 0 0
          0 0 0 0 0 0
          0 0 0 0 0 0
          0 0 0 0 0 0
          0 0 0 10 0 0
          -10 0 0 0 0 0
          0 0 0 0 0 0
          0 0 0 0 0 0
          0 0 0 0 0 0
          0 0 0 0 0 0
          10 0 0 -10 0 0
          0 0 0 0 0 0
          0 0 0 0 0 0
          0 0 0 0 0 0
          0 0 0 0 0 0
          0 0 0 10 0 0
          -10 0 0 0 0 0
          0 0 0 0 0 0
          0 0 0 0 0 0
          0 0 0 0 0 0
          0 0 0 0 0 0
          10 0 0 -10 0 0
          0 0 0 0 0 0
          0 0 0 0 0 0
          0 0 0 0 0 0
          0 0 0 0 0 0
          0 0 0 10 0 0
          -10 0 0 0 0 0
          0 0 0 0 0 0
          0 0 0 0 0 0
          0 0 0 0 0 0
          0 0 0 0 0 0
          10 0 0 -7.0710678118654755 7.0710678118654755 0
          0 10 0 0 10 0
          0 10 0 0 10 0
          0 10 0 0 10 0
          0 10 0 0 10 0
          0 10 0 7.0710678118654755 7.0710678118654755 0
          <InformationKey name="L2_NORM_RANGE" location="vtkDataArray" length="2">
            <Value index="0">
              0
            </Value>
            <Value index="1">
              10
            </Value>
          </InformationKey>
        </DataArray>
        <DataArray type="Float32" Name="nodal_U_step0_reshaped" NumberOfComponents="3" format="ascii" RangeMin="0.6000000238418579" RangeMax="0.6000000238418579">
          0.6000000238418579 0 0 0.6000000238418579 0 0
          0.6000000238418579 0 0 0.6000000238418579 0 0
          0.6000000238418579 0 0 0.6000000238418579 0 0
          0.6000000238418579 0 0 0.6000000238418579 0 0
          0.6000000238418579 0 0 0.6000000238418579 0 0
          0.6000000238418579 0 0 0.6000000238418579 0 0
          0.6000000238418579 0 0 0.6000000238418579 0 0
          0.6000000238418579 0 0 0.6000000238418579 0 0
          0.6000000238418579 0 0 0.6000000238418579 0 0
          0.6000000238418579 0 0 0.6000000238418579 0 0
          0.6000000238418579 0 0 0.6000000238418579 0 0
          0.6000000238418579 0 0 0.6000000238418579 0 0
          0.6000000238418579 0 0 0.6000000238418579 0 0
          0.6000000238418579 0 0 0.6000000238418579 0 0
          0.6000000238418579 0 0 0.6000000238418579 0 0
          0.6000000238418579 0 0 0.6000000238418579 0 0
          0.6000000238418579 0 0 0.6000000238418579 0 0
          0.6000000238418579 0 0 0.6000000238418579 0 0
          0.6000000238418579 0 0 0.6000000238418579 0 0
          0.6000000238418579 0 0 0.6000000238418579 0 0
          0.6000000238418579 0 0 0.6000000238418579 0 0
          0.6000000238418579 0 0 0.6000000238418579 0 0
          0.6000000238418579 0 0 0.6000000238418579 0 0
          0.6000000238418579 0 0 0.6000000238418579 0 0
          0.6000000238418579 0 0 0.6000000238418579 0 0
          0.6000000238418579 0 0 0.6000000238418579 0 0
          0.6000000238418579 0 0 0.6000000238418579 0 0
          0.6000000238418579 0 0 0.6000000238418579 0 0
          0.6000000238418579 0 0 0.6000000238418579 0 0
          0.6000000238418579 0 0 0.6000000238418579 0 0
          0.6000000238418579 0 0 0.6000000238418579 0 0
          0.6000000238418579 0 0 0.6000000238418579 0 0
          0.6000000238418579 0 0 0.6000000238418579 0 0
          0.6000000238418579 0 0 0.6000000238418579 0 0
          0.6000000238418579 0 0 0.6000000238418579 0 0
          0.6000000238418579 0 0 0.6000000238418579 0 0
          0.6000000238418579 0 0 0.6000000238418579 0 0
          0.6000000238418579 0 0 0.6000000238418579 0 0
          0.6000000238418579 0 0 0.6000000238418579 0 0
          0.6000000238418579 0 0 0.6000000238418579 0 0
          0.6000000238418579 0 0 0.6000000238418579 0 0
          0.6000000238418579 0 0 0.6000000238418579 0 0
          0.6000000238418579 0 0 0.6000000238418579 0 0
          0.6000000238418579 0 0 0.6000000238418579 0 0
          0.6000000238418579 0 0 0.6000000238418579 0 0
          0.6000000238418579 0 0 0.6000000238418579 0 0
          0.6000000238418579 0 0 0.6000000238418579 0 0
          0.6000000238418579 0 0 0.6000000238418579 0 0
          0.6000000238418579 0 0 0.6000000238418579 0 0
          0.6000000238418579 0 0 0.6000000238418579 0 0
          0.6000000238418579 0 0 0.6000000238418579 0 0
          0.6000000238418579 0 0 0.6000000238418579 0 0
          0.6000000238418579 0 0 0.6000000238418579 0 0
          0.6000000238418579 0 0 0.6000000238418579 0 0
          0.6000000238418579 0 0 0.6000000238418579 0 0
          0.6000000238418579 0 0 0.6000000238418579 0 0
          0.6000000238418579 0 0 0.6000000238418579 0 0
          0.6000000238418579 0 0 0.6000000238418579 0 0
          0.6000000238418579 0 0 0.6000000238418579 0 0
          0.6000000238418579 0 0 0.6000000238418579 0 0
          0.6000000238418579 0 0 0.6000000238418579 0 0
          0.6000000238418579 0 0 0.6000000238418579 0 0
          0.6000000238418579 0 0 0.6000000238418579 0 0
          0.6000000238418579 0 0 0.6000000238418579 0 0
          0.6000000238418579 0 0 0.6000000238418579 0 0
          0.6000000238418579 0 0 0.6000000238418579 0 0
          0.6000000238418579 0 0 0.6000000238418579 0 0
          0.6000000238418579 0 0 0.6000000238418579 0 0
          0.6000000238418579 0 0 0.6000000238418579 0 0
          0.6000000238418579 0 0 0.6000000238418579 0 0
          0.6000000238418579 0 0 0.6000000238418579 0 0
          0.6000000238418579 0 0 0.6000000238418579 0 0
          0.6000000238418579 0 0 0.6000000238418579 0 0
          0.6000000238418579 0 0 0.6000000238418579 0 0
          0.6000000238418579 0 0 0.6000000238418579 0 0
          0.6000000238418579 0 0 0.6000000238418579 0 0
          0.6000000238418579 0 0 0.6000000238418579 0 0
          0.6000000238418579 0 0 0.6000000238418579 0 0
          0.6000000238418579 0 0 0.6000000238418579 0 0
          0.6000000238418579 0 0 0.6000000238418579 0 0
          0.6000000238418579 0 0 0.6000000238418579 0 0
          0.6000000238418579 0 0 0.6000000238418579 0 0
          0.6000000238418579 0 0 0.6000000238418579 0 0
          0.6000000238418579 0 0 0.6000000238418579 0 0
          0.6000000238418579 0 0 0.6000000238418579 0 0
          0.6000000238418579 0 0 0.6000000238418579 0 0
          0.6000000238418579 0 0 0.6000000238418579 0 0
          0.6000000238418579 0 0 0.6000000238418579 0 0
          0.6000000238418579 0 0 0.6000000238418579 0 0
          0.6000000238418579 0 0 0.6000000238418579 0 0
          0.6000000238418579 0 0 0.6000000238418579 0 0
          0.6000000238418579 0 0 0.6000000238418579 0 0
          0.6000000238418579 0 0 0.6000000238418579 0 0
          0.6000000238418579 0 0 0.6000000238418579 0 0
          0.6000000238418579 0 0 0.6000000238418579 0 0
          0.6000000238418579 0 0 0.6000000238418579 0 0
          0.6000000238418579 0 0 0.6000000238418579 0 0
          0.6000000238418579 0 0 0.6000000238418579 0 0
          0.6000000238418579 0 0 0.6000000238418579 0 0
          0.6000000238418579 0 0 0.6000000238418579 0 0
          0.6000000238418579 0 0 0.6000000238418579 0 0
          0.6000000238418579 0 0 0.6000000238418579 0 0
          0.6000000238418579 0 0 0.6000000238418579 0 0
          0.6000000238418579 0 0 0.6000000238418579 0 0
          0.6000000238418579 0 0 0.6000000238418579 0 0
          0.6000000238418579 0 0 0.6000000238418579 0 0
          0.6000000238418579 0 0 0.6000000238418579 0 0
          0.6000000238418579 0 0 0.6000000238418579 0 0
          0.6000000238418579 0 0 0.6000000238418579 0 0
          0.6000000238418579 0 0 0.6000000238418579 0 0
          0.6000000238418579 0 0 0.6000000238418579 0 0
          0.6000000238418579 0 0 0.6000000238418579 0 0
          0.6000000238418579 0 0 0.6000000238418579 0 0
          0.6000000238418579 0 0 0.6000000238418579 0 0
          0.6000000238418579 0 0 0.6000000238418579 0 0
          0.6000000238418579 0 0 0.6000000238418579 0 0
          0.6000000238418579 0 0 0.6000000238418579 0 0
          0.6000000238418579 0 0 0.6000000238418579 0 0
          0.6000000238418579 0 0 0.6000000238418579 0 0
          0.6000000238418579 0 0 0.6000000238418579 0 0
          0.6000000238418579 0 0 0.6000000238418579 0 0
          <InformationKey name="L2_NORM_RANGE" location="vtkDataArray" length="2">
            <Value index="0">
              0.60000002384
            </Value>
            <Value index="1">
              0.60000002384
            </Value>
          </InformationKey>
        </DataArray>
        <DataArray type="Float32" Name="nodal_T_step0" format="ascii" RangeMin="0" RangeMax="0.5999999046325684">
          0.5999999046325684 0 0 0 0 0
          0 0 0 0 0 0.5999999046325684
          0 0 0 0 0 0
          0 0 0 0 0.5999999046325684 0
          0 0 0 0 0 0
          0 0 0 0.5999999046325684 0 0
          0 0 0 0 0 0
          0 0 0.5999999046325684 0 0 0
          0 0 0 0 0 0
          0 0.5999999046325684 0 0 0 0
          0 0 0 0 0 0
          0.5999999046325684 0 0 0 0 0
          0 0 0 0 0 0.5999999046325684
          0 0 0 0 0 0
          0 0 0 0 0.5999999046325684 0
          0 0 0 0 0 0
          0 0 0 0.5999999046325684 0 0
          0 0 0 0 0 0
          0 0 0.5999999046325684 0 0 0
          0 0 0 0 0 0
          0 0.5999999046325684 0 0 0 0
          0 0 0 0 0 0
          0.5999999046325684 0 0 0 0 0
          0 0 0 0 0 0.5999999046325684
          0 0 0 0 0 0
          0 0 0 0 0.5999999046325684 0
          0 0 0 0 0 0
          0 0 0 0.5999999046325684 0 0
          0 0 0 0 0 0
          0 0 0.5999999046325684 0 0 0
          0 0 0 0 0 0
          0 0.5999999046325684 0 0 0 0
          0 0 0 0 0 0
          0.5999999046325684 0 0 0 0 0
          0 0 0 0 0 0.5999999046325684
          0 0 0 0 0 0
          0 0 0 0 0.5999999046325684 0
          0 0 0 0 0 0
          0 0 0 0.5999999046325684 0 0
          0 0 0 0 0 0
          0 0
        </DataArray>
        <DataArray type="Float32" Name="nodal_U_step25_reshaped" NumberOfComponents="3" format="ascii" RangeMin="0.6000000238418579" RangeMax="0.6000000238418579">
          0.6000000238418579 0 0 0.6000000238418579 0 0
          0.6000000238418579 0 0 0.6000000238418579 0 0
          0.6000000238418579 0 0 0.6000000238418579 0 0
          0.6000000238418579 0 0 0.6000000238418579 0 0
          0.6000000238418579 0 0 0.6000000238418579 0 0
          0.6000000238418579 0 0 0.6000000238418579 0 0
          0.6000000238418579 0 0 0.6000000238418579 0 0
          0.6000000238418579 0 0 0.6000000238418579 0 0
          0.6000000238418579 0 0 0.6000000238418579 0 0
          0.6000000238418579 0 0 0.6000000238418579 0 0
          0.6000000238418579 0 0 0.6000000238418579 0 0
          0.6000000238418579 0 0 0.6000000238418579 0 0
          0.6000000238418579 0 0 0.6000000238418579 0 0
          0.6000000238418579 0 0 0.6000000238418579 0 0
          0.6000000238418579 0 0 0.6000000238418579 0 0
          0.6000000238418579 0 0 0.6000000238418579 0 0
          0.6000000238418579 0 0 0.6000000238418579 0 0
          0.6000000238418579 0 0 0.6000000238418579 0 0
          0.6000000238418579 0 0 0.6000000238418579 0 0
          0.6000000238418579 0 0 0.6000000238418579 0 0
          0.6000000238418579 0 0 0.6000000238418579 0 0
          0.6000000238418579 0 0 0.6000000238418579 0 0
          0.6000000238418579 0 0 0.6000000238418579 0 0
          0.6000000238418579 0 0 0.6000000238418579 0 0
          0.6000000238418579 0 0 0.6000000238418579 0 0
          0.6000000238418579 0 0 0.6000000238418579 0 0
          0.6000000238418579 0 0 0.6000000238418579 0 0
          0.6000000238418579 0 0 0.6000000238418579 0 0
          0.6000000238418579 0 0 0.6000000238418579 0 0
          0.6000000238418579 0 0 0.6000000238418579 0 0
          0.6000000238418579 0 0 0.6000000238418579 0 0
          0.6000000238418579 0 0 0.6000000238418579 0 0
          0.6000000238418579 0 0 0.6000000238418579 0 0
          0.6000000238418579 0 0 0.6000000238418579 0 0
          0.6000000238418579 0 0 0.6000000238418579 0 0
          0.6000000238418579 0 0 0.6000000238418579 0 0
          0.6000000238418579 0 0 0.6000000238418579 0 0
          0.6000000238418579 0 0 0.6000000238418579 0 0
          0.6000000238418579 0 0 0.6000000238418579 0 0
          0.6000000238418579 0 0 0.6000000238418579 0 0
          0.6000000238418579 0 0 0.6000000238418579 0 0
          0.6000000238418579 0 0 0.6000000238418579 0 0
          0.6000000238418579 0 0 0.6000000238418579 0 0
          0.6000000238418579 0 0 0.6000000238418579 0 0
          0.6000000238418579 0 0 0.6000000238418579 0 0
          0.6000000238418579 0 0 0.6000000238418579 0 0
          0.6000000238418579 0 0 0.6000000238418579 0 0
          0.6000000238418579 0 0 0.6000000238418579 0 0
          0.6000000238418579 0 0 0.6000000238418579 0 0
          0.6000000238418579 0 0 0.6000000238418579 0 0
          0.6000000238418579 0 0 0.6000000238418579 0 0
          0.6000000238418579 0 0 0.6000000238418579 0 0
          0.6000000238418579 0 0 0.6000000238418579 0 0
          0.6000000238418579 0 0 0.6000000238418579 0 0
          0.6000000238418579 0 0 0.6000000238418579 0 0
          0.6000000238418579 0 0 0.6000000238418579 0 0
          0.6000000238418579 0 0 0.6000000238418579 0 0
          0.6000000238418579 0 0 0.6000000238418579 0 0
          0.6000000238418579 0 0 0.6000000238418579 0 0
          0.6000000238418579 0 0 0.6000000238418579 0 0
          0.6000000238418579 0 0 0.6000000238418579 0 0
          0.6000000238418579 0 0 0.6000000238418579 0 0
          0.6000000238418579 0 0 0.6000000238418579 0 0
          0.6000000238418579 0 0 0.6000000238418579 0 0
          0.6000000238418579 0 0 0.6000000238418579 0 0
          0.6000000238418579 0 0 0.6000000238418579 0 0
          0.6000000238418579 0 0 0.6000000238418579 0 0
          0.6000000238418579 0 0 0.6000000238418579 0 0
          0.6000000238418579 0 0 0.6000000238418579 0 0
          0.6000000238418579 0 0 0.6000000238418579 0 0
          0.6000000238418579 0 0 0.6000000238418579 0 0
          0.6000000238418579 0 0 0.6000000238418579 0 0
          0.6000000238418579 0 0 0.6000000238418579 0 0
          0.6000000238418579 0 0 0.6000000238418579 0 0
          0.6000000238418579 0 0 0.6000000238418579 0 0
          0.6000000238418579 0 0 0.6000000238418579 0 0
          0.6000000238418579 0 0 0.6000000238418579 0 0
          0.6000000238418579 0 0 0.6000000238418579 0 0
          0.6000000238418579 0 0 0.6000000238418579 0 0
          0.6000000238418579 0 0 0.6000000238418579 0 0
          0.6000000238418579 0 0 0.6000000238418579 0 0
          0.6000000238418579 0 0 0.6000000238418579 0 0
          0.6000000238418579 0 0 0.6000000238418579 0 0
          0.6000000238418579 0 0 0.6000000238418579 0 0
          0.6000000238418579 0 0 0.6000000238418579 0 0
          0.6000000238418579 0 0 0.6000000238418579 0 0
          0.6000000238418579 0 0 0.6000000238418579 0 0
          0.6000000238418579 0 0 0.6000000238418579 0 0
          0.6000000238418579 0 0 0.6000000238418579 0 0
          0.6000000238418579 0 0 0.6000000238418579 0 0
          0.6000000238418579 0 0 0.6000000238418579 0 0
          0.6000000238418579 0 0 0.6000000238418579 0 0
          0.6000000238418579 0 0 0.6000000238418579 0 0
          0.6000000238418579 0 0 0.6000000238418579 0 0
          0.6000000238418579 0 0 0.6000000238418579 0 0
          0.6000000238418579 0 0 0.6000000238418579 0 0
          0.6000000238418579 0 0 0.6000000238418579 0 0
          0.6000000238418579 0 0 0.6000000238418579 0 0
          0.6000000238418579 0 0 0.6000000238418579 0 0
          0.6000000238418579 0 0 0.6000000238418579 0 0
          0.6000000238418579 0 0 0.6000000238418579 0 0
          0.6000000238418579 0 0 0.6000000238418579 0 0
          0.6000000238418579 0 0 0.6000000238418579 0 0
          0.6000000238418579 0 0 0.6000000238418579 0 0
          0.6000000238418579 0 0 0.6000000238418579 0 0
          0.6000000238418579 0 0 0.6000000238418579 0 0
          0.6000000238418579 0 0 0.6000000238418579 0 0